# Region type : patch inlet
# Faces  :      1347
# Area   :      1.67632194e-04
# Time          	sum(phi)
2.22222e-06     	-5.00164490e-08
4.7619e-06      	-1.11187371e-07
7.80952e-06     	-1.98915956e-07
1.08571e-05     	-2.97665292e-07
1.39048e-05     	-4.03312409e-07
1.69524e-05     	-5.13394164e-07
2e-05           	-6.26378275e-07
2.33333e-05     	-7.51365441e-07
2.66667e-05     	-8.76957567e-07
3e-05           	-1.00274044e-06
3.33333e-05     	-1.12874573e-06
3.66667e-05     	-1.25496034e-06
4e-05           	-1.38129282e-06
4.4e-05         	-1.53243609e-06
4.8e-05         	-1.68380072e-06
5.2e-05         	-1.83517814e-06
5.6e-05         	-1.98650171e-06
6e-05           	-2.13775438e-06
6.4e-05         	-2.28893716e-06
6.8e-05         	-2.44005247e-06
7.2e-05         	-2.59109834e-06
7.6e-05         	-2.74206781e-06
8e-05           	-2.89295383e-06
8.4e-05         	-3.04375411e-06
8.8e-05         	-3.19447350e-06
9.2e-05         	-3.34511974e-06
9.6e-05         	-3.49569914e-06
0.0001          	-3.64621385e-06
0.000104        	-3.79666381e-06
0.000108        	-3.94704927e-06
0.000112        	-4.09737164e-06
0.000116        	-4.24763265e-06
0.00012         	-4.39783490e-06
0.000124        	-4.54798086e-06
0.000128        	-4.69807158e-06
0.000132        	-4.84811744e-06
0.000136        	-4.99810606e-06
0.00014         	-5.14802907e-06
0.000144        	-5.29788895e-06
0.000148        	-5.44768369e-06
0.000152        	-5.59741204e-06
0.000156        	-5.74706935e-06
0.00016         	-5.89665137e-06
0.000164        	-6.04616063e-06
0.000168        	-6.19559577e-06
0.000172        	-6.34495596e-06
0.000176        	-6.49424132e-06
0.00018         	-6.64345058e-06
0.000184        	-6.79258213e-06
0.000188        	-6.94163412e-06
0.000192        	-7.09060579e-06
0.000196        	-7.23949709e-06
0.0002          	-7.38830835e-06
0.000204        	-7.53704051e-06
0.000208        	-7.68569466e-06
0.000212        	-7.83427108e-06
0.000216        	-7.98276930e-06
0.00022         	-8.13118849e-06
0.000224        	-8.27952826e-06
0.000228        	-8.42778872e-06
0.000232        	-8.57597009e-06
0.000236        	-8.72407293e-06
0.00024         	-8.87209829e-06
0.000244        	-9.02004655e-06
0.000248        	-9.16791752e-06
0.000252        	-9.31571118e-06
0.000256        	-9.46342796e-06
0.00026         	-9.61106838e-06
0.000264        	-9.75863249e-06
0.000268        	-9.90612065e-06
0.000272        	-1.00535338e-05
0.000276        	-1.02008722e-05
0.00028         	-1.03481366e-05
0.000284        	-1.04953271e-05
0.000288        	-1.06424434e-05
0.000292        	-1.07894836e-05
0.000296        	-1.09364435e-05
0.0003          	-1.10833200e-05
0.000304        	-1.12301124e-05
0.000308        	-1.13768195e-05
0.000312        	-1.15234424e-05
0.000316        	-1.16699812e-05
0.00032         	-1.18164362e-05
0.000324        	-1.19628087e-05
0.000328        	-1.21090979e-05
0.000332        	-1.22553056e-05
0.000336        	-1.24014333e-05
0.00034         	-1.25474833e-05
0.000344        	-1.26934573e-05
0.000348        	-1.28393541e-05
0.000352        	-1.29851718e-05
0.000356        	-1.31309108e-05
0.00036         	-1.32765717e-05
0.000364        	-1.34221519e-05
0.000368        	-1.35676507e-05
0.000372        	-1.37130689e-05
0.000376        	-1.38584077e-05
0.00038         	-1.40036665e-05
0.000384        	-1.41488431e-05
0.000388        	-1.42939365e-05
0.000392        	-1.44389454e-05
0.000396        	-1.45838688e-05
0.0004          	-1.47287055e-05
0.000404        	-1.48734545e-05
0.000408        	-1.50181152e-05
0.000412        	-1.51626873e-05
0.000416        	-1.53071702e-05
0.00042         	-1.54515622e-05
0.000424        	-1.55958640e-05
0.000428        	-1.57400780e-05
0.000432        	-1.58842051e-05
0.000436        	-1.60282448e-05
0.00044         	-1.61721964e-05
0.000444        	-1.63160606e-05
0.000448        	-1.64598370e-05
0.000452        	-1.66035297e-05
0.000456        	-1.67471386e-05
0.00046         	-1.68906646e-05
0.000464        	-1.70341071e-05
0.000468        	-1.71774659e-05
0.000472        	-1.73207411e-05
0.000476        	-1.74639314e-05
0.00048         	-1.76070348e-05
0.000484        	-1.77500474e-05
0.000488        	-1.78929694e-05
0.000492        	-1.80358015e-05
0.000496        	-1.81785449e-05
0.0005          	-1.83211980e-05
0.000504        	-1.84637588e-05
0.000508        	-1.86062256e-05
0.000512        	-1.87486022e-05
0.000516        	-1.88908857e-05
0.00052         	-1.90330791e-05
0.000524        	-1.91751785e-05
0.000528        	-1.93171825e-05
0.000532        	-1.94590821e-05
0.000536        	-1.96008702e-05
0.00054         	-1.97425417e-05
0.000544        	-1.98840903e-05
0.000548        	-2.00255129e-05
0.000552        	-2.01668091e-05
0.000556        	-2.03079796e-05
0.00056         	-2.04490257e-05
0.000564        	-2.05899441e-05
0.000568        	-2.07307314e-05
0.000572        	-2.08713968e-05
0.000576        	-2.10119402e-05
0.00058         	-2.11523597e-05
0.000584        	-2.12926492e-05
0.000588        	-2.14327984e-05
0.000592        	-2.15728081e-05
0.000596        	-2.17126709e-05
0.0006          	-2.18523804e-05
0.000604        	-2.19919373e-05
0.000608        	-2.21313442e-05
0.000612        	-2.22706045e-05
0.000616        	-2.24097181e-05
0.00062         	-2.25486832e-05
0.000624        	-2.26874982e-05
0.000628        	-2.28261619e-05
0.000632        	-2.29646839e-05
0.000636        	-2.31030761e-05
0.00064         	-2.32413536e-05
0.000644        	-2.33795332e-05
0.000648        	-2.35176259e-05
0.000652        	-2.36556274e-05
0.000656        	-2.37935222e-05
0.00066         	-2.39312974e-05
0.000664        	-2.40689346e-05
0.000668        	-2.42064330e-05
0.000672        	-2.43438008e-05
0.000676        	-2.44810510e-05
0.00068         	-2.46181848e-05
0.000684        	-2.47552002e-05
0.000688        	-2.48921082e-05
0.000692        	-2.50289237e-05
0.000696        	-2.51656500e-05
0.0007          	-2.53022924e-05
0.000704        	-2.54388579e-05
0.000708        	-2.55753274e-05
0.000712        	-2.57116799e-05
0.000716        	-2.58479110e-05
0.00072         	-2.59840113e-05
0.000724        	-2.61199690e-05
0.000728        	-2.62557726e-05
0.000732        	-2.63914188e-05
0.000736        	-2.65268984e-05
0.00074         	-2.66622023e-05
0.000744        	-2.67973257e-05
0.000748        	-2.69322627e-05
0.000752        	-2.70670122e-05
0.000756        	-2.72015793e-05
0.00076         	-2.73359699e-05
0.000764        	-2.74701818e-05
0.000768        	-2.76042278e-05
0.000772        	-2.77381267e-05
0.000776        	-2.78718855e-05
0.00078         	-2.80054956e-05
0.000784        	-2.81389368e-05
0.000788        	-2.82721943e-05
0.000792        	-2.84052420e-05
0.000796        	-2.85380758e-05
0.0008          	-2.86706886e-05
0.000804        	-2.88030743e-05
0.000808        	-2.89352451e-05
0.000812        	-2.90671989e-05
0.000816        	-2.91989347e-05
0.00082         	-2.93304644e-05
0.000824        	-2.94618018e-05
0.000828        	-2.95929736e-05
0.000832        	-2.97239976e-05
0.000836        	-2.98548715e-05
0.00084         	-2.99855818e-05
0.000844        	-3.01161180e-05
0.000848        	-3.02464749e-05
0.000852        	-3.03766477e-05
0.000856        	-3.05066301e-05
0.00086         	-3.06364227e-05
0.000864        	-3.07660299e-05
0.000868        	-3.08954576e-05
0.000872        	-3.10247119e-05
0.000876        	-3.11537958e-05
0.00088         	-3.12827089e-05
0.000884        	-3.14114500e-05
0.000888        	-3.15400131e-05
0.000892        	-3.16684041e-05
0.000896        	-3.17966461e-05
0.0009          	-3.19247673e-05
0.000904        	-3.20527719e-05
0.000908        	-3.21806526e-05
0.000912        	-3.23083986e-05
0.000916        	-3.24359870e-05
0.00092         	-3.25634049e-05
0.000924        	-3.26906539e-05
0.000928        	-3.28177238e-05
0.000932        	-3.29446001e-05
0.000936        	-3.30712917e-05
0.00094         	-3.31978042e-05
0.000944        	-3.33241491e-05
0.000948        	-3.34503266e-05
0.000952        	-3.35763490e-05
0.000956        	-3.37022231e-05
0.00096         	-3.38279713e-05
0.000964        	-3.39536141e-05
0.000968        	-3.40791703e-05
0.000972        	-3.42046528e-05
0.000976        	-3.43300539e-05
0.00098         	-3.44553598e-05
0.000984        	-3.45805430e-05
0.000988        	-3.47055731e-05
0.000992        	-3.48304284e-05
0.000996        	-3.49551103e-05
0.001           	-3.50796187e-05
0.001004        	-3.52039605e-05
0.001008        	-3.53281501e-05
0.001012        	-3.54521812e-05
0.001016        	-3.55760390e-05
0.00102         	-3.56997023e-05
0.001024        	-3.58231568e-05
0.001028        	-3.59463960e-05
0.001032        	-3.60694423e-05
0.001036        	-3.61923241e-05
0.00104         	-3.63150530e-05
0.001044        	-3.64376294e-05
0.001048        	-3.65600520e-05
0.001052        	-3.66823222e-05
0.001056        	-3.68044420e-05
0.00106         	-3.69263999e-05
0.001064        	-3.70481833e-05
0.001068        	-3.71697926e-05
0.001072        	-3.72912255e-05
0.001076        	-3.74124771e-05
0.00108         	-3.75335519e-05
0.001084        	-3.76544547e-05
0.001088        	-3.77751889e-05
0.001092        	-3.78957582e-05
0.001096        	-3.80161897e-05
0.0011          	-3.81365284e-05
0.001104        	-3.82567950e-05
0.001108        	-3.83769931e-05
0.001112        	-3.84970996e-05
0.001116        	-3.86170841e-05
0.00112         	-3.87369188e-05
0.001124        	-3.88565692e-05
0.001128        	-3.89759884e-05
0.001132        	-3.90951365e-05
0.001136        	-3.92140143e-05
0.00114         	-3.93326195e-05
0.001144        	-3.94509800e-05
0.001148        	-3.95691256e-05
0.001152        	-3.96870690e-05
0.001156        	-3.98048123e-05
0.00116         	-3.99223575e-05
0.001164        	-4.00397165e-05
0.001168        	-4.01569208e-05
0.001172        	-4.02740275e-05
0.001176        	-4.03910643e-05
0.00118         	-4.05080160e-05
0.001184        	-4.06248638e-05
0.001188        	-4.07415996e-05
0.001192        	-4.08582186e-05
0.001196        	-4.09747062e-05
0.0012          	-4.10910453e-05
0.001204        	-4.12072290e-05
0.001208        	-4.13232567e-05
0.001212        	-4.14391268e-05
0.001216        	-4.15548449e-05
0.00122         	-4.16704236e-05
0.001224        	-4.17858885e-05
0.001228        	-4.19012735e-05
0.001232        	-4.20165840e-05
0.001236        	-4.21318108e-05
0.00124         	-4.22469443e-05
0.001244        	-4.23619898e-05
0.001248        	-4.24769936e-05
0.001252        	-4.25919576e-05
0.001256        	-4.27068738e-05
0.00126         	-4.28216934e-05
0.001264        	-4.29363730e-05
0.001268        	-4.30508972e-05
0.001272        	-4.31652635e-05
0.001276        	-4.32794655e-05
0.00128         	-4.33934981e-05
0.001284        	-4.35073352e-05
0.001288        	-4.36209568e-05
0.001292        	-4.37343818e-05
0.001296        	-4.38476335e-05
0.0013          	-4.39607261e-05
0.001304        	-4.40736590e-05
0.001308        	-4.41864504e-05
0.001312        	-4.42991489e-05
0.001316        	-4.44118014e-05
0.00132         	-4.45244250e-05
0.001324        	-4.46370049e-05
0.001328        	-4.47495127e-05
0.001332        	-4.48619226e-05
0.001336        	-4.49742295e-05
0.00134         	-4.50864622e-05
0.001344        	-4.51986297e-05
0.001348        	-4.53107383e-05
0.001352        	-4.54227866e-05
0.001356        	-4.55347853e-05
0.00136         	-4.56467639e-05
0.001364        	-4.57587301e-05
0.001368        	-4.58706790e-05
0.001372        	-4.59826272e-05
0.001376        	-4.60946110e-05
0.00138         	-4.62066655e-05
0.001384        	-4.63188109e-05
0.001388        	-4.64310837e-05
0.001392        	-4.65434856e-05
0.001396        	-4.66560116e-05
0.0014          	-4.67686502e-05
0.001404        	-4.68813672e-05
0.001408        	-4.69941259e-05
0.001412        	-4.71068983e-05
0.001416        	-4.72196605e-05
0.00142         	-4.73323813e-05
0.001424        	-4.74450716e-05
0.001428        	-4.75577587e-05
0.001432        	-4.76704574e-05
0.001436        	-4.77831712e-05
0.00144         	-4.78959244e-05
0.001444        	-4.80087478e-05
0.001448        	-4.81216493e-05
0.001452        	-4.82346304e-05
0.001456        	-4.83477648e-05
0.00146         	-4.84611114e-05
0.001464        	-4.85746565e-05
0.001468        	-4.86883832e-05
0.001472        	-4.88022866e-05
0.001476        	-4.89163328e-05
0.00148         	-4.90304791e-05
0.001484        	-4.91446795e-05
0.001488        	-4.92589195e-05
0.001492        	-4.93731765e-05
0.001496        	-4.94874461e-05
0.0015          	-4.96017486e-05
0.001504        	-4.97161255e-05
0.001508        	-4.98306058e-05
0.001512        	-4.99451483e-05
0.001516        	-5.00597028e-05
0.00152         	-5.01742792e-05
0.001524        	-5.02889491e-05
0.001528        	-5.04037714e-05
0.001532        	-5.05187794e-05
0.001536        	-5.06339675e-05
0.00154         	-5.07492618e-05
0.001544        	-5.08645894e-05
0.001548        	-5.09799663e-05
0.001552        	-5.10954193e-05
0.001556        	-5.12109581e-05
0.00156         	-5.13265689e-05
0.001564        	-5.14422125e-05
0.001568        	-5.15578473e-05
0.001572        	-5.16734352e-05
0.001576        	-5.17889610e-05
0.00158         	-5.19044310e-05
0.001584        	-5.20198554e-05
0.001588        	-5.21352499e-05
0.001592        	-5.22506379e-05
0.001596        	-5.23660237e-05
0.0016          	-5.24814069e-05
0.001604        	-5.25967769e-05
0.001608        	-5.27121033e-05
0.001612        	-5.28273785e-05
0.001616        	-5.29426312e-05
0.00162         	-5.30578693e-05
0.001624        	-5.31731135e-05
0.001628        	-5.32883799e-05
0.001632        	-5.34036883e-05
0.001636        	-5.35190639e-05
0.00164         	-5.36345041e-05
0.001644        	-5.37500260e-05
0.001648        	-5.38656212e-05
0.001652        	-5.39812422e-05
0.001656        	-5.40968390e-05
0.00166         	-5.42123609e-05
0.001664        	-5.43277483e-05
0.001668        	-5.44429507e-05
0.001672        	-5.45580480e-05
0.001676        	-5.46731268e-05
0.00168         	-5.47882898e-05
0.001684        	-5.49035798e-05
0.001688        	-5.50189767e-05
0.001692        	-5.51344051e-05
0.001696        	-5.52497743e-05
0.0017          	-5.53650681e-05
0.001704        	-5.54803644e-05
0.001708        	-5.55957070e-05
0.001712        	-5.57111088e-05
0.001716        	-5.58265634e-05
0.00172         	-5.59420725e-05
0.001724        	-5.60576430e-05
0.001728        	-5.61732615e-05
0.001732        	-5.62888795e-05
0.001736        	-5.64044530e-05
0.00174         	-5.65199505e-05
0.001744        	-5.66353466e-05
0.001748        	-5.67506055e-05
0.001752        	-5.68657283e-05
0.001756        	-5.69807447e-05
0.00176         	-5.70956688e-05
0.001764        	-5.72104857e-05
0.001768        	-5.73251859e-05
0.001772        	-5.74398035e-05
0.001776        	-5.75543694e-05
0.00178         	-5.76688885e-05
0.001784        	-5.77833433e-05
0.001788        	-5.78977088e-05
0.001792        	-5.80119675e-05
0.001796        	-5.81260879e-05
0.0018          	-5.82400244e-05
0.001804        	-5.83537644e-05
0.001808        	-5.84673774e-05
0.001812        	-5.85809067e-05
0.001816        	-5.86943442e-05
0.00182         	-5.88076772e-05
0.001824        	-5.89208978e-05
0.001828        	-5.90339798e-05
0.001832        	-5.91468772e-05
0.001836        	-5.92596276e-05
0.00184         	-5.93722662e-05
0.001844        	-5.94847911e-05
0.001848        	-5.95971856e-05
0.001852        	-5.97094128e-05
0.001856        	-5.98214547e-05
0.00186         	-5.99333125e-05
0.001864        	-6.00449818e-05
0.001868        	-6.01564438e-05
0.001872        	-6.02677008e-05
0.001876        	-6.03787833e-05
0.00188         	-6.04897025e-05
0.001884        	-6.06004456e-05
0.001888        	-6.07109903e-05
0.001892        	-6.08213312e-05
0.001896        	-6.09314599e-05
0.0019          	-6.10413801e-05
0.001904        	-6.11511079e-05
0.001908        	-6.12606726e-05
0.001912        	-6.13701123e-05
0.001916        	-6.14794473e-05
0.00192         	-6.15886838e-05
0.001924        	-6.16978176e-05
0.001928        	-6.18068406e-05
0.001932        	-6.19157339e-05
0.001936        	-6.20244958e-05
0.00194         	-6.21331322e-05
0.001944        	-6.22416399e-05
0.001948        	-6.23499760e-05
0.001952        	-6.24580306e-05
0.001956        	-6.25657704e-05
0.00196         	-6.26733638e-05
0.001964        	-6.27809506e-05
0.001968        	-6.28885798e-05
0.001972        	-6.29962202e-05
0.001976        	-6.31038028e-05
0.00198         	-6.32112405e-05
0.001984        	-6.33184769e-05
0.001988        	-6.34254751e-05
0.001992        	-6.35322278e-05
0.001996        	-6.36387465e-05
0.002           	-6.37450552e-05
0.002004        	-6.38512051e-05
0.002008        	-6.39572239e-05
0.002012        	-6.40631324e-05
0.002016        	-6.41689628e-05
0.00202         	-6.42747396e-05
0.002024        	-6.43804631e-05
0.002028        	-6.44861206e-05
0.002032        	-6.45916728e-05
0.002036        	-6.46970858e-05
0.00204         	-6.48023358e-05
0.002044        	-6.49073878e-05
0.002048        	-6.50122406e-05
0.002052        	-6.51169505e-05
0.002056        	-6.52215578e-05
0.00206         	-6.53260805e-05
0.002064        	-6.54305016e-05
0.002068        	-6.55347974e-05
0.002072        	-6.56389373e-05
0.002076        	-6.57428981e-05
0.00208         	-6.58466830e-05
0.002084        	-6.59502920e-05
0.002088        	-6.60537314e-05
0.002092        	-6.61570085e-05
0.002096        	-6.62601295e-05
0.0021          	-6.63631029e-05
0.002104        	-6.64659542e-05
0.002108        	-6.65687248e-05
0.002112        	-6.66714276e-05
0.002116        	-6.67740639e-05
0.00212         	-6.68766234e-05
0.002124        	-6.69790854e-05
0.002128        	-6.70814295e-05
0.002132        	-6.71836420e-05
0.002136        	-6.72857278e-05
0.00214         	-6.73876938e-05
0.002144        	-6.74895480e-05
0.002148        	-6.75912948e-05
0.002152        	-6.76929244e-05
0.002156        	-6.77944117e-05
0.00216         	-6.78957447e-05
0.002164        	-6.79968965e-05
0.002168        	-6.80977948e-05
0.002172        	-6.81985304e-05
0.002176        	-6.82992865e-05
0.00218         	-6.84000996e-05
0.002184        	-6.85009216e-05
0.002188        	-6.86016831e-05
0.002192        	-6.87023371e-05
0.002196        	-6.88028278e-05
0.0022          	-6.89031121e-05
0.002204        	-6.90031739e-05
0.002208        	-6.91030251e-05
0.002212        	-6.92026952e-05
0.002216        	-6.93022442e-05
0.00222         	-6.94017524e-05
0.002224        	-6.95012520e-05
0.002228        	-6.96007266e-05
0.002232        	-6.97001315e-05
0.002236        	-6.97994304e-05
0.00224         	-6.98985979e-05
0.002244        	-6.99976319e-05
0.002248        	-7.00965464e-05
0.002252        	-7.01953562e-05
0.002256        	-7.02940590e-05
0.00226         	-7.03926195e-05
0.002264        	-7.04910195e-05
0.002268        	-7.05893076e-05
0.002272        	-7.06875275e-05
0.002276        	-7.07856969e-05
0.00228         	-7.08837939e-05
0.002284        	-7.09817790e-05
0.002288        	-7.10796245e-05
0.002292        	-7.11773089e-05
0.002296        	-7.12748334e-05
0.0023          	-7.13722070e-05
0.002304        	-7.14694316e-05
0.002308        	-7.15665043e-05
0.002312        	-7.16634242e-05
0.002316        	-7.17602016e-05
0.00232         	-7.18568553e-05
0.002324        	-7.19534293e-05
0.002328        	-7.20499561e-05
0.002332        	-7.21464392e-05
0.002336        	-7.22428691e-05
0.00234         	-7.23392147e-05
0.002344        	-7.24354445e-05
0.002348        	-7.25315349e-05
0.002352        	-7.26274825e-05
0.002356        	-7.27232896e-05
0.00236         	-7.28189596e-05
0.002364        	-7.29144972e-05
0.002368        	-7.30099087e-05
0.002372        	-7.31051999e-05
0.002376        	-7.32003767e-05
0.00238         	-7.32954359e-05
0.002384        	-7.33903719e-05
0.002388        	-7.34851821e-05
0.002392        	-7.35798643e-05
0.002396        	-7.36744113e-05
0.0024          	-7.37688234e-05
0.002404        	-7.38631038e-05
0.002408        	-7.39572553e-05
0.002412        	-7.40512836e-05
0.002416        	-7.41451938e-05
0.00242         	-7.42389896e-05
0.002424        	-7.43326751e-05
0.002428        	-7.44262546e-05
0.002432        	-7.45197291e-05
0.002436        	-7.46130970e-05
0.00244         	-7.47063490e-05
0.002444        	-7.47994818e-05
0.002448        	-7.48925008e-05
0.002452        	-7.49854051e-05
0.002456        	-7.50781952e-05
0.00246         	-7.51708772e-05
0.002464        	-7.52634516e-05
0.002468        	-7.53559134e-05
0.002472        	-7.54482583e-05
0.002476        	-7.55404832e-05
0.00248         	-7.56325853e-05
0.002484        	-7.57245610e-05
0.002488        	-7.58164087e-05
0.002492        	-7.59081279e-05
0.002496        	-7.59997192e-05
0.0025          	-7.60911831e-05
0.002504        	-7.61825256e-05
0.002508        	-7.62737461e-05
0.002512        	-7.63648204e-05
0.002516        	-7.64556896e-05
0.00252         	-7.65463290e-05
0.002524        	-7.66366841e-05
0.002528        	-7.67268753e-05
0.002532        	-7.68170267e-05
0.002536        	-7.69072315e-05
0.00254         	-7.69975095e-05
0.002544        	-7.70878121e-05
0.002548        	-7.71780486e-05
0.002552        	-7.72681378e-05
0.002556        	-7.73580372e-05
0.00256         	-7.74477431e-05
0.002564        	-7.75372956e-05
0.002568        	-7.76267366e-05
0.002572        	-7.77161118e-05
0.002576        	-7.78054237e-05
0.00258         	-7.78946347e-05
0.002584        	-7.79837178e-05
0.002588        	-7.80726561e-05
0.002592        	-7.81614591e-05
0.002596        	-7.82501393e-05
0.0026          	-7.83387078e-05
0.002604        	-7.84271453e-05
0.002608        	-7.85153526e-05
0.002612        	-7.86030560e-05
0.002616        	-7.86900722e-05
0.00262         	-7.87767229e-05
0.002624        	-7.88634991e-05
0.002628        	-7.89506150e-05
0.002632        	-7.90380013e-05
0.002636        	-7.91254496e-05
0.00264         	-7.92126975e-05
0.002644        	-7.92996300e-05
0.002648        	-7.93864041e-05
0.002652        	-7.94731498e-05
0.002656        	-7.95599136e-05
0.00266         	-7.96466452e-05
0.002664        	-7.97333206e-05
0.002668        	-7.98199412e-05
0.002672        	-7.99064964e-05
0.002676        	-7.99929693e-05
0.00268         	-8.00793404e-05
0.002684        	-8.01656166e-05
0.002688        	-8.02517999e-05
0.002692        	-8.03378902e-05
0.002696        	-8.04238758e-05
0.0027          	-8.05097416e-05
0.002704        	-8.05954934e-05
0.002708        	-8.06811365e-05
0.002712        	-8.07666786e-05
0.002716        	-8.08521223e-05
0.00272         	-8.09374695e-05
0.002724        	-8.10227200e-05
0.002728        	-8.11078679e-05
0.002732        	-8.11929084e-05
0.002736        	-8.12778380e-05
0.00274         	-8.13626551e-05
0.002744        	-8.14473600e-05
0.002748        	-8.15319597e-05
0.002752        	-8.16164589e-05
0.002756        	-8.17008501e-05
0.00276         	-8.17851293e-05
0.002764        	-8.18693024e-05
0.002768        	-8.19533672e-05
0.002772        	-8.20373223e-05
0.002776        	-8.21211600e-05
0.00278         	-8.22048754e-05
0.002784        	-8.22884653e-05
0.002788        	-8.23719354e-05
0.002792        	-8.24552928e-05
0.002796        	-8.25385440e-05
0.0028          	-8.26216952e-05
0.002804        	-8.27047518e-05
0.002808        	-8.27877162e-05
0.002812        	-8.28705879e-05
0.002816        	-8.29533658e-05
0.00282         	-8.30360495e-05
0.002824        	-8.31186380e-05
0.002828        	-8.32011301e-05
0.002832        	-8.32835221e-05
0.002836        	-8.33658138e-05
0.00284         	-8.34480037e-05
0.002844        	-8.35300932e-05
0.002848        	-8.36120818e-05
0.002852        	-8.36939693e-05
0.002856        	-8.37757567e-05
0.00286         	-8.38574417e-05
0.002864        	-8.39390243e-05
0.002868        	-8.40205064e-05
0.002872        	-8.41018888e-05
0.002876        	-8.41831708e-05
0.00288         	-8.42643499e-05
0.002884        	-8.43454211e-05
0.002888        	-8.44263870e-05
0.002892        	-8.45072479e-05
0.002896        	-8.45880028e-05
0.0029          	-8.46686477e-05
0.002904        	-8.47491781e-05
0.002908        	-8.48295917e-05
0.002912        	-8.49098829e-05
0.002916        	-8.49900454e-05
0.00292         	-8.50700810e-05
0.002924        	-8.51499905e-05
0.002928        	-8.52297796e-05
0.002932        	-8.53094493e-05
0.002936        	-8.53890017e-05
0.00294         	-8.54684370e-05
0.002944        	-8.55477554e-05
0.002948        	-8.56269532e-05
0.002952        	-8.57060291e-05
0.002956        	-8.57849781e-05
0.00296         	-8.58637962e-05
0.002964        	-8.59424670e-05
0.002968        	-8.60209564e-05
0.002972        	-8.60992374e-05
0.002976        	-8.61774228e-05
0.00298         	-8.62556115e-05
0.002984        	-8.63338345e-05
0.002988        	-8.64120731e-05
0.002992        	-8.64903007e-05
0.002996        	-8.65684704e-05
0.003           	-8.66465242e-05
0.003004        	-8.67244265e-05
0.003008        	-8.68021616e-05
0.003012        	-8.68797423e-05
0.003016        	-8.69571772e-05
0.00302         	-8.70344253e-05
0.003024        	-8.71114457e-05
0.003028        	-8.71883712e-05
0.003032        	-8.72653038e-05
0.003036        	-8.73422218e-05
0.00304         	-8.74190810e-05
0.003044        	-8.74958327e-05
0.003048        	-8.75724497e-05
0.003052        	-8.76489079e-05
0.003056        	-8.77251974e-05
0.00306         	-8.78013440e-05
0.003064        	-8.78774423e-05
0.003068        	-8.79535231e-05
0.003072        	-8.80295443e-05
0.003076        	-8.81054655e-05
0.00308         	-8.81812635e-05
0.003084        	-8.82569324e-05
0.003088        	-8.83324827e-05
0.003092        	-8.84079287e-05
0.003096        	-8.84832784e-05
0.0031          	-8.85585297e-05
0.003104        	-8.86336752e-05
0.003108        	-8.87087083e-05
0.003112        	-8.87836219e-05
0.003116        	-8.88584128e-05
0.00312         	-8.89330825e-05
0.003124        	-8.90076372e-05
0.003128        	-8.90820854e-05
0.003132        	-8.91564393e-05
0.003136        	-8.92307142e-05
0.00314         	-8.93049072e-05
0.003144        	-8.93790030e-05
0.003148        	-8.94529971e-05
0.003152        	-8.95268852e-05
0.003156        	-8.96006609e-05
0.00316         	-8.96743018e-05
0.003164        	-8.97477159e-05
0.003168        	-8.98207018e-05
0.003172        	-8.98934581e-05
0.003176        	-8.99663930e-05
0.00318         	-9.00396783e-05
0.003184        	-9.01132305e-05
0.003188        	-9.01868974e-05
0.003192        	-9.02605123e-05
0.003196        	-9.03339435e-05
0.0032          	-9.04071545e-05
0.003204        	-9.04801426e-05
0.003208        	-9.05529063e-05
0.003212        	-9.06254442e-05
0.003216        	-9.06977928e-05
0.00322         	-9.07700064e-05
0.003224        	-9.08421437e-05
0.003228        	-9.09142093e-05
0.003232        	-9.09861843e-05
0.003236        	-9.10580716e-05
0.00324         	-9.11299685e-05
0.003244        	-9.12019102e-05
0.003248        	-9.12738728e-05
0.003252        	-9.13457934e-05
0.003256        	-9.14176121e-05
0.00326         	-9.14892897e-05
0.003264        	-9.15608271e-05
0.003268        	-9.16322290e-05
0.003272        	-9.17034982e-05
0.003276        	-9.17746342e-05
0.00328         	-9.18456384e-05
0.003284        	-9.19165221e-05
0.003288        	-9.19872949e-05
0.003292        	-9.20579765e-05
0.003296        	-9.21285758e-05
0.0033          	-9.21990976e-05
0.003304        	-9.22695461e-05
0.003308        	-9.23399248e-05
0.003312        	-9.24102358e-05
0.003316        	-9.24804797e-05
0.00332         	-9.25506650e-05
0.003324        	-9.26207776e-05
0.003328        	-9.26907957e-05
0.003332        	-9.27607067e-05
0.003336        	-9.28305193e-05
0.00334         	-9.29002254e-05
0.003344        	-9.29698155e-05
0.003348        	-9.30392902e-05
0.003352        	-9.31086496e-05
0.003356        	-9.31779185e-05
0.00336         	-9.32471147e-05
0.003364        	-9.33161970e-05
0.003368        	-9.33851493e-05
0.003372        	-9.34540779e-05
0.003376        	-9.35230559e-05
0.00338         	-9.35920688e-05
0.003384        	-9.36610490e-05
0.003388        	-9.37299251e-05
0.003392        	-9.37986685e-05
0.003396        	-9.38672701e-05
0.0034          	-9.39357466e-05
0.003404        	-9.40041148e-05
0.003408        	-9.40723834e-05
0.003412        	-9.41405575e-05
0.003416        	-9.42086370e-05
0.00342         	-9.42766205e-05
0.003424        	-9.43445060e-05
0.003428        	-9.44122928e-05
0.003432        	-9.44799878e-05
0.003436        	-9.45476014e-05
0.00344         	-9.46151376e-05
0.003444        	-9.46825948e-05
0.003448        	-9.47499712e-05
0.003452        	-9.48172637e-05
0.003456        	-9.48844697e-05
0.00346         	-9.49515878e-05
0.003464        	-9.50186151e-05
0.003468        	-9.50855438e-05
0.003472        	-9.51523746e-05
0.003476        	-9.52190985e-05
0.00348         	-9.52857103e-05
0.003484        	-9.53522064e-05
0.003488        	-9.54185821e-05
0.003492        	-9.54848451e-05
0.003496        	-9.55509973e-05
0.0035          	-9.56170443e-05
0.003504        	-9.56829873e-05
0.003508        	-9.57488245e-05
0.003512        	-9.58145467e-05
0.003516        	-9.58801484e-05
0.00352         	-9.59456244e-05
0.003524        	-9.60109763e-05
0.003528        	-9.60762125e-05
0.003532        	-9.61413376e-05
0.003536        	-9.62063570e-05
0.00354         	-9.62712761e-05
0.003544        	-9.63360957e-05
0.003548        	-9.64008166e-05
0.003552        	-9.64654423e-05
0.003556        	-9.65299819e-05
0.00356         	-9.65944436e-05
0.003564        	-9.66588316e-05
0.003568        	-9.67231472e-05
0.003572        	-9.67873924e-05
0.003576        	-9.68515679e-05
0.00358         	-9.69156724e-05
0.003584        	-9.69797054e-05
0.003588        	-9.70436691e-05
0.003592        	-9.71075539e-05
0.003596        	-9.71713509e-05
0.0036          	-9.72350496e-05
0.003604        	-9.72986453e-05
0.003608        	-9.73621336e-05